                               Psi4 1.9.1 release

  ==> Input File <==

--------------------------------------------------------------------------
memory 120 gb
set parallel true
psi4.set_num_threads(12)

molecule {
0 1
Cd 0 0 0
}

set basis ano-rcc-vtzp
set relativistic dkh
set dkh_order 3
set e_convergence 1e-14
set ints_tolerance 1e-14
set scf_type pk

energy('scf')

--------------------------------------------------------------------------

    Molecular point group: d2h
    Geometry (in Angstrom), charge = 0, multiplicity = 1:

       Center              X                  Y                   Z               Mass
    ------------   -----------------  -----------------  -----------------  -----------------
         CD           0.000000000000     0.000000000000     0.000000000000   113.903365090000

  Charge       = 0
  Multiplicity = 1
  Basis Set: ANO-RCC-VTZP
    Blend: ANO-RCC-VTZP

    Orbital Energies [Eh]
    ---------------------

    Doubly Occupied:

       1Ag  -986.637013     2Ag  -149.728590     1B2u -134.153484
       1B1u -134.153484     1B3u -134.153484     3Ag   -29.309086
       2B1u  -24.060504     2B3u  -24.060504     2B2u  -24.060504
       1B3g  -15.842130     1B1g  -15.842130     4Ag   -15.842130
       1B2g  -15.842130     5Ag   -15.842130     6Ag    -4.743927
       3B1u   -3.116716     3B2u   -3.116716     3B3u   -3.116716
       2B2g   -0.719890     2B3g   -0.719890     2B1g   -0.719890
       7Ag    -0.719890     8Ag    -0.719890     9Ag    -0.280790

  @RHF Final Energy: -5591.51837455907571

   => Energetics <=

    Nuclear Repulsion Energy =              0.0000000000000000
    One-Electron Energy =               -7708.0335096746448471
    Two-Electron Energy =                2116.5151351155695920
    Total Energy =                      -5591.5183745590748003
 Dipole X            :          0.0000000            0.0000000            0.0000000
 Dipole Y            :          0.0000000            0.0000000            0.0000000
 Dipole Z            :          0.0000000            0.0000000            0.0000000
 Magnitude           :                                                    0.0000000
*** Psi4 exiting successfully. Buy a developer a beer!
