                               Psi4 1.9.1 release

  ==> Input File <==

--------------------------------------------------------------------------
memory 120 gb
set parallel true
psi4.set_num_threads(24)

molecule {
0 1
Hg 0 0 0
}

set basis ano-rcc-vtzp
set relativistic dkh
set dkh_order 3
set e_convergence 1e-14
set ints_tolerance 1e-14
set scf_type pk

energy('scf')

--------------------------------------------------------------------------

    Molecular point group: d2h
    Geometry (in Angstrom), charge = 0, multiplicity = 1:

       Center              X                  Y                   Z               Mass
    ------------   -----------------  -----------------  -----------------  -----------------
         HG           0.000000000000     0.000000000000     0.000000000000   201.970643400000

  Charge       = 0
  Multiplicity = 1
  Basis Set: ANO-RCC-VTZP
    Blend: ANO-RCC-VTZP

    Orbital Energies [Eh]
    ---------------------

    Doubly Occupied:

       1Ag  -3073.002527     2Ag  -550.188800     1B2u -476.177313
       1B3u -476.177313     1B1u -476.177313     3Ag  -133.126725
       2B3u -111.325460     2B2u -111.325460     2B1u -111.325460
       1B1g  -87.383130     4Ag   -87.383130     1B2g  -87.383130
       1B3g  -87.383130     5Ag   -87.383130     6Ag   -30.655529
       3B3u  -23.360284     3B2u  -23.360284     3B1u  -23.360284
       2B1g  -14.350749     7Ag   -14.350749     2B2g  -14.350749
       2B3g  -14.350749     8Ag   -14.350749     9Ag    -5.102611
       4B2u   -4.387380     4B3u   -4.387380     5B3u   -4.387380
       5B2u   -4.387380     4B1u   -4.387380     1Au    -4.387380
       5B1u   -4.387380     6B3u   -3.045678     6B2u   -3.045678
       6B1u   -3.045678     3B3g   -0.603459     3B2g   -0.603459
      10Ag    -0.603459     3B1g   -0.603459    11Ag    -0.603459
      12Ag    -0.326587

  @RHF Final Energy: -19625.72495753352268

   => Energetics <=

    Nuclear Repulsion Energy =              0.0000000000000000
    One-Electron Energy =              -26898.3952456959996198
    Two-Electron Energy =                7272.6702881624778456
    Total Energy =                     -19625.7249575335226837
 Dipole X            :          0.0000000            0.0000000            0.0000000
 Dipole Y            :          0.0000000            0.0000000            0.0000000
 Dipole Z            :          0.0000000            0.0000000            0.0000000
 Magnitude           :                                                    0.0000000
*** Psi4 exiting successfully. Buy a developer a beer!
