                               Psi4 1.9.1 release

  ==> Input File <==

--------------------------------------------------------------------------
memory 120 gb
set parallel true
psi4.set_num_threads(12)

molecule {
0 1
Cd 0 0 0
}

set basis ano-rcc-vtzp
set relativistic dkh
set e_convergence 1e-14
set ints_tolerance 1e-14
set scf_type pk

energy('scf')

--------------------------------------------------------------------------

    Molecular point group: d2h
    Geometry (in Angstrom), charge = 0, multiplicity = 1:

       Center              X                  Y                   Z               Mass
    ------------   -----------------  -----------------  -----------------  -----------------
         CD           0.000000000000     0.000000000000     0.000000000000   113.903365090000

  Charge       = 0
  Multiplicity = 1
  Basis Set: ANO-RCC-VTZP
    Blend: ANO-RCC-VTZP

    Orbital Energies [Eh]
    ---------------------

    Doubly Occupied:

       1Ag  -986.091324     2Ag  -149.671720     1B2u -134.153855
       1B1u -134.153855     1B3u -134.153855     3Ag   -29.298566
       2B1u  -24.060848     2B3u  -24.060848     2B2u  -24.060848
       1B3g  -15.842537     1B1g  -15.842537     4Ag   -15.842537
       5Ag   -15.842537     1B2g  -15.842537     6Ag    -4.742104
       3B2u   -3.116903     3B1u   -3.116903     3B3u   -3.116903
       2B2g   -0.720059     2B3g   -0.720059     2B1g   -0.720059
       7Ag    -0.720059     8Ag    -0.720059     9Ag    -0.280686

  @RHF Final Energy: -5590.28292126592351

   => Energetics <=

    Nuclear Repulsion Energy =              0.0000000000000000
    One-Electron Energy =               -7706.7814472355903490
    Two-Electron Energy =                2116.4985259696672983
    Total Energy =                      -5590.2829212659235054
 Dipole X            :          0.0000000            0.0000000            0.0000000
 Dipole Y            :          0.0000000            0.0000000            0.0000000
 Dipole Z            :          0.0000000            0.0000000            0.0000000
 Magnitude           :                                                    0.0000000
*** Psi4 exiting successfully. Buy a developer a beer!
