                               Psi4 1.9.1 release

  ==> Input File <==

--------------------------------------------------------------------------
memory 120 gb
set parallel true
psi4.set_num_threads(24)

molecule {
0 1
Hg 0 0 0
}

set basis ano-rcc-vtzp
set relativistic dkh
set e_convergence 1e-14
set ints_tolerance 1e-14
set scf_type pk

energy('scf')

--------------------------------------------------------------------------

    Molecular point group: d2h
    Geometry (in Angstrom), charge = 0, multiplicity = 1:

       Center              X                  Y                   Z               Mass
    ------------   -----------------  -----------------  -----------------  -----------------
         HG           0.000000000000     0.000000000000     0.000000000000   201.970643400000

  Charge       = 0
  Multiplicity = 1
  Basis Set: ANO-RCC-VTZP
    Blend: ANO-RCC-VTZP

    Orbital Energies [Eh]
    ---------------------

    Doubly Occupied:

       1Ag  -3063.504034     2Ag  -549.074038     1B2u -476.176839
       1B1u -476.176839     1B3u -476.176839     3Ag  -132.881729
       2B1u -111.327858     2B3u -111.327858     2B2u -111.327858
       1B1g  -87.385973     1B3g  -87.385973     1B2g  -87.385973
       4Ag   -87.385973     5Ag   -87.385973     6Ag   -30.595621
       3B2u  -23.362095     3B3u  -23.362095     3B1u  -23.362095
       2B1g  -14.352626     7Ag   -14.352626     2B2g  -14.352626
       8Ag   -14.352626     2B3g  -14.352626     9Ag    -5.091547
       4B2u   -4.389201     4B1u   -4.389201     4B3u   -4.389201
       1Au    -4.389201     5B1u   -4.389201     5B3u   -4.389201
       5B2u   -4.389201     6B3u   -3.046731     6B2u   -3.046731
       6B1u   -3.046731     3B1g   -0.604299    10Ag    -0.604299
      11Ag    -0.604299     3B3g   -0.604299     3B2g   -0.604299
      12Ag    -0.325649

  @RHF Final Energy: -19603.80811691341660

   => Energetics <=

    Nuclear Repulsion Energy =              0.0000000000000000
    One-Electron Energy =              -26876.3120609230172704
    Two-Electron Energy =                7272.5039440095988539
    Total Energy =                     -19603.8081169134165975
 Dipole X            :          0.0000000            0.0000000            0.0000000
 Dipole Y            :          0.0000000            0.0000000            0.0000000
 Dipole Z            :          0.0000000            0.0000000            0.0000000
 Magnitude           :                                                    0.0000000
*** Psi4 exiting successfully. Buy a developer a beer!
