                               Psi4 1.9.1 release

  ==> Input File <==

--------------------------------------------------------------------------
memory 120 gb
set parallel true
psi4.set_num_threads(12)

molecule {
0 1
Zn 0 0 0
}

set basis ano-rcc-vtzp
set relativistic dkh
set e_convergence 1e-14
set ints_tolerance 1e-14
set scf_type pk

energy('scf')

--------------------------------------------------------------------------

    Molecular point group: d2h
    Geometry (in Angstrom), charge = 0, multiplicity = 1:

       Center              X                  Y                   Z               Mass
    ------------   -----------------  -----------------  -----------------  -----------------
         ZN           0.000000000000     0.000000000000     0.000000000000    63.929142010000

  Charge       = 0
  Multiplicity = 1
  Basis Set: ANO-RCC-VTZP
    Blend: ANO-RCC-VTZP

    Orbital Energies [Eh]
    ---------------------

    Doubly Occupied:

       1Ag  -357.525403     2Ag   -45.323597     1B3u  -39.133168
       1B1u  -39.133168     1B2u  -39.133168     3Ag    -5.795608
       2B3u   -3.874439     2B2u   -3.874439     2B1u   -3.874439
       1B1g   -0.759902     1B3g   -0.759902     4Ag    -0.759902
       1B2g   -0.759902     5Ag    -0.759902     6Ag    -0.297682

  @RHF Final Energy: -1794.23095781717484

   => Energetics <=

    Nuclear Repulsion Energy =              0.0000000000000000
    One-Electron Energy =               -2504.9326755648417020
    Two-Electron Energy =                 710.7017177476669758
    Total Energy =                      -1794.2309578171748399
 Dipole X            :          0.0000000            0.0000000            0.0000000
 Dipole Y            :          0.0000000            0.0000000            0.0000000
 Dipole Z            :          0.0000000            0.0000000            0.0000000
 Magnitude           :                                                    0.0000000
*** Psi4 exiting successfully. Buy a developer a beer!
