                         Program Version 5.0.4 -  RELEASE  -
|  1> ! RHF DKH ExtremeSCF
|  2>
|  3> %basis
|  4> newgto Cd
|  5> S   21
|  6> 1  27563063.3                    0.00025203
|  7> 2   4023923.89                   0.00070778
|  8> 3    831028.280                  0.00197705
|  9> 4    209117.070                  0.00499125
| 10> 5     60794.2054                 0.01220977
| 11> 6     19739.6940                 0.02944651
| 12> 7      6994.00924                0.07051102
| 13> 8      2653.33413                0.16053338
| 14> 9      1060.81572                0.30760117
| 15> 10      442.593459               0.38206303
| 16> 11      190.585656               0.19308464
| 17> 12       81.1318646              0.01335631
| 18> 13       36.8534197              0.00215472
| 19> 14       17.0183020             -0.00174999
| 20> 15        7.90105891             0.00111298
| 21> 16        3.59848804            -0.00066605
| 22> 17        1.57017494             0.00034199
| 23> 18        0.62925059            -0.00015471
| 24> 19        0.22361714             0.00007563
| 25> 20        0.08944686            -0.00003851
| 26> 21        0.03577874             0.00001145
| 27> S   21
| 28> 1  27563063.3                   -0.00008577
| 29> 2   4023923.89                  -0.00024121
| 30> 3    831028.280                 -0.00067535
| 31> 4    209117.070                 -0.00171365
| 32> 5     60794.2054                -0.00422611
| 33> 6     19739.6940                -0.01036621
| 34> 7      6994.00924               -0.02555770
| 35> 8      2653.33413               -0.06207576
| 36> 9      1060.81572               -0.13554401
| 37> 10      442.593459              -0.22186857
| 38> 11      190.585656              -0.11908531
| 39> 12       81.1318646              0.42137574
| 40> 13       36.8534197              0.61555856
| 41> 14       17.0183020              0.14196017
| 42> 15        7.90105891             0.00683915
| 43> 16        3.59848804            -0.00201725
| 44> 17        1.57017494             0.00110629
| 45> 18        0.62925059            -0.00063956
| 46> 19        0.22361714             0.00031218
| 47> 20        0.08944686            -0.00016199
| 48> 21        0.03577874             0.00004794
| 49> S   21
| 50> 1  27563063.3                    0.00003752
| 51> 2   4023923.89                   0.00010553
| 52> 3    831028.280                  0.00029557
| 53> 4    209117.070                  0.00075051
| 54> 5     60794.2054                 0.00185309
| 55> 6     19739.6940                 0.00455616
| 56> 7      6994.00924                0.01128190
| 57> 8      2653.33413                0.02765856
| 58> 9      1060.81572                0.06162248
| 59> 10      442.593459               0.10538233
| 60> 11      190.585656               0.05989756
| 61> 12       81.1318646             -0.29014473
| 62> 13       36.8534197             -0.62631179
| 63> 14       17.0183020              0.07406280
| 64> 15        7.90105891             0.91796893
| 65> 16        3.59848804             0.29757390
| 66> 17        1.57017494            -0.00408073
| 67> 18        0.62925059             0.00567657
| 68> 19        0.22361714            -0.00218277
| 69> 20        0.08944686             0.00110719
| 70> 21        0.03577874            -0.00032361
| 71> S   21
| 72> 1  27563063.3                   -0.00001589
| 73> 2   4023923.89                  -0.00004469
| 74> 3    831028.280                 -0.00012520
| 75> 4    209117.070                 -0.00031776
| 76> 5     60794.2054                -0.00078567
| 77> 6     19739.6940                -0.00192863
| 78> 7      6994.00924               -0.00479589
| 79> 8      2653.33413               -0.01172057
| 80> 9      1060.81572               -0.02640986
| 81> 10      442.593459              -0.04502311
| 82> 11      190.585656              -0.02711829
| 83> 12       81.1318646              0.13771907
| 84> 13       36.8534197              0.30755544
| 85> 14       17.0183020             -0.02899778
| 86> 15        7.90105891            -0.85922944
| 87> 16        3.59848804            -0.25086537
| 88> 17        1.57017494             1.00250711
| 89> 18        0.62925059             0.41270898
| 90> 19        0.22361714            -0.01285749
| 91> 20        0.08944686             0.01042088
| 92> 21        0.03577874            -0.00281706
| 93> S   21
| 94> 1  27563063.3                    0.00000407
| 95> 2   4023923.89                   0.00001145
| 96> 3    831028.280                  0.00003209
| 97> 4    209117.070                  0.00008143
| 98> 5     60794.2054                 0.00020142
| 99> 6     19739.6940                 0.00049416
|100> 7      6994.00924                0.00123030
|101> 8      2653.33413                0.00300295
|102> 9      1060.81572                0.00678631
|103> 10      442.593459               0.01154382
|104> 11      190.585656               0.00706148
|105> 12       81.1318646             -0.03607067
|106> 13       36.8534197             -0.08056275
|107> 14       17.0183020              0.00635022
|108> 15        7.90105891             0.25515310
|109> 16        3.59848804             0.06457750
|110> 17        1.57017494            -0.39927908
|111> 18        0.62925059            -0.31210466
|112> 19        0.22361714             0.27158689
|113> 20        0.08944686             0.73646069
|114> 21        0.03577874             0.21905824
|115> S   21
|116> 1  27563063.3                   -0.00000730
|117> 2   4023923.89                  -0.00002054
|118> 3    831028.280                 -0.00005756
|119> 4    209117.070                 -0.00014610
|120> 5     60794.2054                -0.00036124
|121> 6     19739.6940                -0.00088694
|122> 7      6994.00924               -0.00220569
|123> 8      2653.33413               -0.00539454
|124> 9      1060.81572               -0.01216380
|125> 10      442.593459              -0.02079784
|126> 11      190.585656              -0.01256211
|127> 12       81.1318646              0.06496562
|128> 13       36.8534197              0.14884544
|129> 14       17.0183020             -0.02146948
|130> 15        7.90105891            -0.47088037
|131> 16        3.59848804            -0.16062787
|132> 17        1.57017494             1.18039500
|133> 18        0.62925059            -0.15262761
|134> 19        0.22361714            -1.43661332
|135> 20        0.08944686             0.18629623
|136> 21        0.03577874             0.94884000
|137> S   21
|138> 1  27563063.3                    0.00001079
|139> 2   4023923.89                   0.00003033
|140> 3    831028.280                  0.00008504
|141> 4    209117.070                  0.00021559
|142> 5     60794.2054                 0.00053439
|143> 6     19739.6940                 0.00130650
|144> 7      6994.00924                0.00327177
|145> 8      2653.33413                0.00792387
|146> 9      1060.81572                0.01813554
|147> 10      442.593459               0.03032305
|148> 11      190.585656               0.01996200
|149> 12       81.1318646             -0.10113908
|150> 13       36.8534197             -0.21707989
|151> 14       17.0183020              0.02879083
|152> 15        7.90105891             0.77132841
|153> 16        3.59848804             0.21919208
|154> 17        1.57017494            -2.66944814
|155> 18        0.62925059             2.86917188
|156> 19        0.22361714            -0.26467454
|157> 20        0.08944686            -1.99250356
|158> 21        0.03577874             1.55966849
|159> P   19
|160> 1    914994.370                  0.00003415
|161> 2    132787.711                  0.00014598
|162> 3     28725.0465                 0.00059823
|163> 4      7990.89292                0.00239519
|164> 5      2678.94666                0.00920949
|165> 6      1026.57029                0.03249362
|166> 7       432.700620               0.09787366
|167> 8       195.351086               0.22951604
|168> 9        92.4471168              0.37027905
|169> 10       45.1795981              0.32834806
|170> 11       22.1047361              0.11256543
|171> 12       10.8855916              0.00698855
|172> 13        5.43069145             0.00131843
|173> 14        2.48455863            -0.00058087
|174> 15        1.11712599             0.00020122
|175> 16        0.45575952            -0.00012528
|176> 17        0.18230380             0.00005825
|177> 18        0.07292152            -0.00002762
|178> 19        0.02916860             0.00000871
|179> P   19
|180> 1    914994.370                 -0.00001557
|181> 2    132787.711                 -0.00006662
|182> 3     28725.0465                -0.00027370
|183> 4      7990.89292               -0.00109946
|184> 5      2678.94666               -0.00426057
|185> 6      1026.57029               -0.01523653
|186> 7       432.700620              -0.04729822
|187> 8       195.351086              -0.11613114
|188> 9        92.4471168             -0.19983936
|189> 10       45.1795981             -0.15156191
|190> 11       22.1047361              0.19726260
|191> 12       10.8855916              0.54888392
|192> 13        5.43069145             0.35560468
|193> 14        2.48455863             0.04877608
|194> 15        1.11712599            -0.00049384
|195> 16        0.45575952             0.00101396
|196> 17        0.18230380            -0.00035976
|197> 18        0.07292152             0.00016514
|198> 19        0.02916860            -0.00005173
|199> P   19
|200> 1    914994.370                  0.00000626
|201> 2    132787.711                  0.00002676
|202> 3     28725.0465                 0.00011020
|203> 4      7990.89292                0.00044149
|204> 5      2678.94666                0.00172103
|205> 6      1026.57029                0.00613641
|206> 7       432.700620               0.01927963
|207> 8       195.351086               0.04737841
|208> 9        92.4471168              0.08368002
|209> 10       45.1795981              0.05824584
|210> 11       22.1047361             -0.11019146
|211> 12       10.8855916             -0.34145776
|212> 13        5.43069145            -0.17520260
|213> 14        2.48455863             0.46365097
|214> 15        1.11712599             0.58770151
|215> 16        0.45575952             0.16395162
|216> 17        0.18230380            -0.00377261
|217> 18        0.07292152             0.00450614
|218> 19        0.02916860            -0.00134373
|219> P   19
|220> 1    914994.370                  0.00000339
|221> 2    132787.711                  0.00001453
|222> 3     28725.0465                 0.00005964
|223> 4      7990.89292                0.00024025
|224> 5      2678.94666                0.00092977
|225> 6      1026.57029                0.00334731
|226> 7       432.700620               0.01041466
|227> 8       195.351086               0.02626340
|228> 9        92.4471168              0.04565139
|229> 10       45.1795981              0.03343710
|230> 11       22.1047361             -0.06830800
|231> 12       10.8855916             -0.19321922
|232> 13        5.43069145            -0.13462615
|233> 14        2.48455863             0.49483992
|234> 15        1.11712599             0.44272056
|235> 16        0.45575952            -0.79324115
|236> 17        0.18230380            -0.62342547
|237> 18        0.07292152             0.49522009
|238> 19        0.02916860             0.41009087
|239> P   19
|240> 1    914994.370                 -0.00000134
|241> 2    132787.711                 -0.00000573
|242> 3     28725.0465                -0.00002362
|243> 4      7990.89292               -0.00009449
|244> 5      2678.94666               -0.00036922
|245> 6      1026.57029               -0.00131344
|246> 7       432.700620              -0.00414228
|247> 8       195.351086              -0.01013776
|248> 9        92.4471168             -0.01804492
|249> 10       45.1795981             -0.01225963
|250> 11       22.1047361              0.02428066
|251> 12       10.8855916              0.07811641
|252> 13        5.43069145             0.03653761
|253> 14        2.48455863            -0.12951832
|254> 15        1.11712599            -0.17902835
|255> 16        0.45575952            -0.00496121
|256> 17        0.18230380             0.35279661
|257> 18        0.07292152             0.53370392
|258> 19        0.02916860             0.25088069
|259> P   19
|260> 1    914994.370                 -0.00000478
|261> 2    132787.711                 -0.00002061
|262> 3     28725.0465                -0.00008338
|263> 4      7990.89292               -0.00034465
|264> 5      2678.94666               -0.00128693
|265> 6      1026.57029               -0.00484041
|266> 7       432.700620              -0.01432439
|267> 8       195.351086              -0.03624777
|268> 9        92.4471168             -0.05782958
|269> 10       45.1795981             -0.05357039
|270> 11       22.1047361              0.12210570
|271> 12       10.8855916              0.21173599
|272> 13        5.43069145             0.31498805
|273> 14        2.48455863            -1.24722268
|274> 15        1.11712599             0.30318821
|275> 16        0.45575952             1.55316563
|276> 17        0.18230380            -1.66069567
|277> 18        0.07292152             0.16506020
|278> 19        0.02916860             0.61073290
|279> D   13
|280> 1      1060.81572                0.00112961
|281> 2       442.593459               0.00411185
|282> 3       190.585656               0.02372246
|283> 4        81.1318646              0.09073334
|284> 5        36.8534197              0.23647754
|285> 6        17.0183020              0.39880750
|286> 7         7.90105891             0.36195009
|287> 8         3.59848804             0.11813018
|288> 9         1.57017494             0.00657323
|289> 10        0.62925059             0.00083067
|290> 11        0.22361714            -0.00032719
|291> 12        0.08944685             0.00017545
|292> 13        0.03577874            -0.00006157
|293> D   13
|294> 1      1060.81572               -0.00038195
|295> 2       442.593459              -0.00140161
|296> 3       190.585656              -0.00809460
|297> 4        81.1318646             -0.03143745
|298> 5        36.8534197             -0.08263868
|299> 6        17.0183020             -0.13550167
|300> 7         7.90105891            -0.08708663
|301> 8         3.59848804             0.19246875
|302> 9         1.57017494             0.45595010
|303> 10        0.62925059             0.42322611
|304> 11        0.22361714             0.15990757
|305> 12        0.08944685            -0.00109498
|306> 13        0.03577874             0.00445263
|307> D   13
|308> 1      1060.81572                0.00049521
|309> 2       442.593459               0.00173199
|310> 3       190.585656               0.01046851
|311> 4        81.1318646              0.03977027
|312> 5        36.8534197              0.10844777
|313> 6        17.0183020              0.16137504
|314> 7         7.90105891             0.08165498
|315> 8         3.59848804            -0.38626964
|316> 9         1.57017494            -0.55624381
|317> 10        0.62925059             0.47335082
|318> 11        0.22361714             0.56901406
|319> 12        0.08944685             0.01781505
|320> 13        0.03577874             0.02528073
|321> D   13
|322> 1      1060.81572               -0.00059231
|323> 2       442.593459              -0.00152277
|324> 3       190.585656              -0.01216538
|325> 4        81.1318646             -0.03929610
|326> 5        36.8534197             -0.12830789
|327> 6        17.0183020             -0.12952544
|328> 7         7.90105891            -0.09864070
|329> 8         3.59848804             0.71000582
|330> 9         1.57017494            -0.05850101
|331> 10        0.62925059            -0.92007216
|332> 11        0.22361714             0.64336612
|333> 12        0.08944685             0.36373131
|334> 13        0.03577874             0.08905607
|335> F   6
|336> 1         8.802300               0.03816491
|337> 2         3.520920              -0.47887546
|338> 3         0.563347              -0.91070910
|339> 4         0.225338               0.23907610
|340> 5         0.090135              -0.16919988
|341> 6         0.036054               0.06207494
|342> F   6
|343> 1         8.802300              -0.10705161
|344> 2         3.520920               0.86090849
|345> 3         0.563347              -0.33824019
|346> 4         0.225338              -0.47814683
|347> 5         0.090135               0.08257799
|348> 6         0.036054              -0.03423662
|349> G   4
|350> 1         4.299747               0.27085788
|351> 2         0.687959               0.99914592
|352> 3         0.275183              -0.16072960
|353> 4         0.110073               0.10027534
|354> end
|355> end
|356>
|357> *xyz 0 1
|358> Cd 0 0 0
|359> *
|360>
|361>                          ****END OF INPUT****

CARTESIAN COORDINATES (ANGSTROEM)
---------------------------------
  Cd     0.000000    0.000000    0.000000

 Total Charge           Charge          ....    0
 Multiplicity           Mult            ....    1
 Number of Electrons    NEL             ....   48
 Basis Dimension        Dim             ....   68

ORBITAL ENERGIES
----------------

  NO   OCC          E(Eh)            E(eV)
   0   2.0000    -986.091324    -26832.9091
   1   2.0000    -149.671720     -4072.7746
   2   2.0000    -134.153855     -3650.5120
   3   2.0000    -134.153855     -3650.5120
   4   2.0000    -134.153855     -3650.5120
   5   2.0000     -29.298566      -797.2545
   6   2.0000     -24.060848      -654.7290
   7   2.0000     -24.060848      -654.7290
   8   2.0000     -24.060848      -654.7290
   9   2.0000     -15.842537      -431.0973
  10   2.0000     -15.842537      -431.0973
  11   2.0000     -15.842537      -431.0973
  12   2.0000     -15.842537      -431.0973
  13   2.0000     -15.842537      -431.0973
  14   2.0000      -4.742104      -129.0392
  15   2.0000      -3.116903       -84.8152
  16   2.0000      -3.116903       -84.8152
  17   2.0000      -3.116903       -84.8152
  18   2.0000      -0.720059       -19.5938
  19   2.0000      -0.720059       -19.5938
  20   2.0000      -0.720059       -19.5938
  21   2.0000      -0.720059       -19.5938
  22   2.0000      -0.720059       -19.5938
  23   2.0000      -0.280686        -7.6379
  24   0.0000       0.054508         1.4832
  25   0.0000       0.054508         1.4832
  26   0.0000       0.054508         1.4832
  27   0.0000       0.219252         5.9662
  28   0.0000       0.398720        10.8497

MULLIKEN ATOMIC CHARGES
-----------------------
   0 Cd:   -0.000000
Sum of atomic charges:   -0.0000000

LOEWDIN ATOMIC CHARGES
----------------------
   0 Cd:    0.000000

FINAL SINGLE POINT ENERGY     -5590.282921273994

DIPOLE MOMENT
-------------
                                X             Y             Z
Electronic contribution:     -0.00000      -0.00000       0.00000
Nuclear contribution   :      0.00000       0.00000       0.00000
                        -----------------------------------------
Total Dipole Moment    :     -0.00000      -0.00000       0.00000
                        -----------------------------------------
Magnitude (a.u.)       :      0.00000
Magnitude (Debye)      :      0.00000

Rotational constants in cm-1:     0.000000     0.000000     0.000000
Rotational constants in MHz :     0.000000     0.000000     0.000000

                             ****ORCA TERMINATED NORMALLY****
TOTAL RUN TIME: 0 days 0 hours 1 minutes 7 seconds 147 msec
