                         Program Version 5.0.4 -  RELEASE  -
|  1> ! RHF DKH ExtremeSCF
|  2>
|  3> %basis
|  4> newgto Hg
|  5> S   25
|  6> 1  52311095.5                    0.00111354
|  7> 2  12004904.5                    0.00151521
|  8> 3   3398412.62                   0.00392020
|  9> 4   1053466.23                   0.00732354
| 10> 5    352643.121                  0.01498748
| 11> 6    125378.803                  0.02847488
| 12> 7     46972.2738                 0.05488503
| 13> 8     18358.5908                 0.10321872
| 14> 9      7416.84618                0.18826590
| 15> 10     3086.36369                0.29901583
| 16> 11     1323.96497                0.33459965
| 17> 12      582.786344               0.17048633
| 18> 13      265.393450               0.01469357
| 19> 14      125.737369               0.00280218
| 20> 15       61.4474879             -0.00230841
| 21> 16       30.7434147              0.00164426
| 22> 17       15.1121715             -0.00107831
| 23> 18        7.32946465             0.00064170
| 24> 19        3.48638744            -0.00032579
| 25> 20        1.49957173             0.00014223
| 26> 21        0.59713115            -0.00006020
| 27> 22        0.20832533             0.00002552
| 28> 23        0.06626400            -0.00001379
| 29> 24        0.02650560             0.00000796
| 30> 25        0.01060224            -0.00000247
| 31> S   25
| 32> 1  52311095.5                   -0.00043394
| 33> 2  12004904.5                   -0.00059168
| 34> 3   3398412.62                  -0.00153387
| 35> 4   1053466.23                  -0.00287968
| 36> 5    352643.121                 -0.00593783
| 37> 6    125378.803                 -0.01143069
| 38> 7     46972.2738                -0.02251673
| 39> 8     18358.5908                -0.04392359
| 40> 9      7416.84618               -0.08547042
| 41> 10     3086.36369               -0.15215543
| 42> 11     1323.96497               -0.20264962
| 43> 12      582.786344              -0.05244657
| 44> 13      265.393450               0.42863082
| 45> 14      125.737369               0.56728899
| 46> 15       61.4474879              0.14738968
| 47> 16       30.7434147              0.00619667
| 48> 17       15.1121715             -0.00170585
| 49> 18        7.32946465             0.00108514
| 50> 19        3.48638744            -0.00069002
| 51> 20        1.49957173             0.00032553
| 52> 21        0.59713115            -0.00013607
| 53> 22        0.20832533             0.00005888
| 54> 23        0.06626400            -0.00003187
| 55> 24        0.02650560             0.00001845
| 56> 25        0.01060224            -0.00000573
| 57> S   25
| 58> 1  52311095.5                    0.00020817
| 59> 2  12004904.5                    0.00028394
| 60> 3   3398412.62                   0.00073635
| 61> 4   1053466.23                   0.00138349
| 62> 5    352643.121                  0.00285650
| 63> 6    125378.803                  0.00551028
| 64> 7     46972.2738                 0.01089625
| 65> 8     18358.5908                 0.02138122
| 66> 9      7416.84618                0.04209819
| 67> 10     3086.36369                0.07646943
| 68> 11     1323.96497                0.10556435
| 69> 12      582.786344               0.01984041
| 70> 13      265.393450              -0.34970940
| 71> 14      125.737369              -0.64115107
| 72> 15       61.4474879              0.12530757
| 73> 16       30.7434147              0.91506943
| 74> 17       15.1121715              0.29649999
| 75> 18        7.32946465             0.00471289
| 76> 19        3.48638744             0.00257601
| 77> 20        1.49957173            -0.00087223
| 78> 21        0.59713115             0.00024420
| 79> 22        0.20832533            -0.00010632
| 80> 23        0.06626400             0.00005552
| 81> 24        0.02650560            -0.00003202
| 82> 25        0.01060224             0.00000991
| 83> S   25
| 84> 1  52311095.5                   -0.00010432
| 85> 2  12004904.5                   -0.00014231
| 86> 3   3398412.62                  -0.00036906
| 87> 4   1053466.23                  -0.00069360
| 88> 5    352643.121                 -0.00143234
| 89> 6    125378.803                 -0.00276510
| 90> 7     46972.2738                -0.00547057
| 91> 8     18358.5908                -0.01075817
| 92> 9      7416.84618               -0.02121752
| 93> 10     3086.36369               -0.03881213
| 94> 11     1323.96497               -0.05384707
| 95> 12      582.786344              -0.00954935
| 96> 13      265.393450               0.20133455
| 97> 14      125.737369               0.39855129
| 98> 15       61.4474879             -0.11988238
| 99> 16       30.7434147             -1.12031583
|100> 17       15.1121715             -0.14653830
|101> 18        7.32946465             1.11884307
|102> 19        3.48638744             0.34523612
|103> 20        1.49957173            -0.00121795
|104> 21        0.59713115             0.00315879
|105> 22        0.20832533            -0.00101252
|106> 23        0.06626400             0.00052608
|107> 24        0.02650560            -0.00030283
|108> 25        0.01060224             0.00009361
|109> S   25
|110> 1  52311095.5                    0.00004558
|111> 2  12004904.5                    0.00006217
|112> 3   3398412.62                   0.00016127
|113> 4   1053466.23                   0.00030302
|114> 5    352643.121                  0.00062607
|115> 6    125378.803                  0.00120794
|116> 7     46972.2738                 0.00239309
|117> 8     18358.5908                 0.00469933
|118> 9      7416.84618                0.00930040
|119> 10     3086.36369                0.01695951
|120> 11     1323.96497                0.02377640
|121> 12      582.786344               0.00369993
|122> 13      265.393450              -0.08977177
|123> 14      125.737369              -0.18721424
|124> 15       61.4474879              0.06925434
|125> 16       30.7434147              0.59293085
|126> 17       15.1121715              0.08963441
|127> 18        7.32946465            -1.08256807
|128> 19        3.48638744            -0.33208703
|129> 20        1.49957173             1.11372440
|130> 21        0.59713115             0.38119151
|131> 22        0.20832533            -0.01461779
|132> 23        0.06626400             0.01128299
|133> 24        0.02650560            -0.00601154
|134> 25        0.01060224             0.00187496
|135> S   25
|136> 1  52311095.5                   -0.00001360
|137> 2  12004904.5                   -0.00001855
|138> 3   3398412.62                  -0.00004812
|139> 4   1053466.23                  -0.00009041
|140> 5    352643.121                 -0.00018685
|141> 6    125378.803                 -0.00036037
|142> 7     46972.2738                -0.00071444
|143> 8     18358.5908                -0.00140153
|144> 9      7416.84618               -0.00277866
|145> 10     3086.36369               -0.00505501
|146> 11     1323.96497               -0.00712382
|147> 12      582.786344              -0.00103322
|148> 13      265.393450               0.02675266
|149> 14      125.737369               0.05691376
|150> 15       61.4474879             -0.02248847
|151> 16       30.7434147             -0.18104294
|152> 17       15.1121715             -0.03302813
|153> 18        7.32946465             0.38193889
|154> 19        3.48638744             0.10614789
|155> 20        1.49957173            -0.55818692
|156> 21        0.59713115            -0.33299643
|157> 22        0.20832533             0.61418311
|158> 23        0.06626400             0.70135739
|159> 24        0.02650560            -0.04711126
|160> 25        0.01060224             0.02717337
|161> S   25
|162> 1  52311095.5                    0.00002336
|163> 2  12004904.5                    0.00003187
|164> 3   3398412.62                   0.00008264
|165> 4   1053466.23                   0.00015535
|166> 5    352643.121                  0.00032075
|167> 6    125378.803                  0.00061960
|168> 7     46972.2738                 0.00122519
|169> 8     18358.5908                 0.00241372
|170> 9      7416.84618                0.00475475
|171> 10     3086.36369                0.00873998
|172> 11     1323.96497                0.01208423
|173> 12      582.786344               0.00222278
|174> 13      265.393450              -0.04740742
|175> 14      125.737369              -0.09490509
|176> 15       61.4474879              0.03128525
|177> 16       30.7434147              0.33608476
|178> 17       15.1121715              0.01604272
|179> 18        7.32946465            -0.63414696
|180> 19        3.48638744            -0.32106042
|181> 20        1.49957173             1.71194851
|182> 21        0.59713115            -0.70989162
|183> 22        0.20832533            -1.42214014
|184> 23        0.06626400             1.16100887
|185> 24        0.02650560             0.17485437
|186> 25        0.01060224             0.02172431
|187> S   25
|188> 1  52311095.5                   -0.00003109
|189> 2  12004904.5                   -0.00004239
|190> 3   3398412.62                  -0.00011002
|191> 4   1053466.23                  -0.00020652
|192> 5    352643.121                 -0.00042741
|193> 6    125378.803                 -0.00082242
|194> 7     46972.2738                -0.00163697
|195> 8     18358.5908                -0.00319133
|196> 9      7416.84618               -0.00639092
|197> 10     3086.36369               -0.01144788
|198> 11     1323.96497               -0.01663159
|199> 12      582.786344              -0.00140205
|200> 13      265.393450               0.05906471
|201> 14      125.737369               0.13906607
|202> 15       61.4474879             -0.07243461
|203> 16       30.7434147             -0.39963977
|204> 17       15.1121715             -0.12960041
|205> 18        7.32946465             1.15364481
|206> 19        3.48638744             0.09423592
|207> 20        1.49957173            -3.01161120
|208> 21        0.59713115             3.93137640
|209> 22        0.20832533            -2.17580734
|210> 23        0.06626400            -0.27905804
|211> 24        0.02650560             1.18258948
|212> 25        0.01060224            -0.19297708
|213> P   22
|214> 1  16369430.4                    0.00003322
|215> 2   2923564.62                   0.00009078
|216> 3    665746.278                  0.00026956
|217> 4    176341.910                  0.00076434
|218> 5     52520.0218                 0.00222084
|219> 6     17323.6604                 0.00657966
|220> 7      6286.13361                0.01959228
|221> 8      2487.31052                0.05650155
|222> 9      1058.03692                0.14612231
|223> 10      475.714421               0.29895828
|224> 11      223.313037               0.39193842
|225> 12      108.148839               0.23929910
|226> 13       52.3397495              0.04093375
|227> 14       26.1868051              0.00002391
|228> 15       12.9673095              0.00010551
|229> 16        6.28738986            -0.00010390
|230> 17        2.96160374             0.00001488
|231> 18        1.27453491             0.00000114
|232> 19        0.49204983             0.00000163
|233> 20        0.19681993            -0.00000023
|234> 21        0.07872797             0.00000013
|235> 22        0.03149119            -0.00000004
|236> P   22
|237> 1  16369430.4                   -0.00001711
|238> 2   2923564.62                  -0.00004681
|239> 3    665746.278                 -0.00013927
|240> 4    176341.910                 -0.00039591
|241> 5     52520.0218                -0.00115603
|242> 6     17323.6604                -0.00344546
|243> 7      6286.13361               -0.01038836
|244> 8      2487.31052               -0.03050690
|245> 9      1058.03692               -0.08183823
|246> 10      475.714421              -0.17572960
|247> 11      223.313037              -0.23615322
|248> 12      108.148839              -0.00351246
|249> 13       52.3397495              0.50818710
|250> 14       26.1868051              0.48747163
|251> 15       12.9673095              0.09835793
|252> 16        6.28738986             0.00400004
|253> 17        2.96160374            -0.00032241
|254> 18        1.27453491             0.00016899
|255> 19        0.49204983            -0.00013817
|256> 20        0.19681993             0.00006927
|257> 21        0.07872797            -0.00003407
|258> 22        0.03149119             0.00001085
|259> P   22
|260> 1  16369430.4                    0.00000853
|261> 2   2923564.62                   0.00002333
|262> 3    665746.278                  0.00006944
|263> 4    176341.910                  0.00019756
|264> 5     52520.0218                 0.00057730
|265> 6     17323.6604                 0.00172414
|266> 7      6286.13361                0.00520935
|267> 8      2487.31052                0.01538269
|268> 9      1058.03692                0.04157600
|269> 10      475.714421               0.09059952
|270> 11      223.313037               0.12187701
|271> 12      108.148839              -0.02482196
|272> 13       52.3397495             -0.40892141
|273> 14       26.1868051             -0.36805520
|274> 15       12.9673095              0.44645310
|275> 16        6.28738986             0.67420582
|276> 17        2.96160374             0.14821739
|277> 18        1.27453491             0.00277245
|278> 19        0.49204983             0.00061705
|279> 20        0.19681993            -0.00016413
|280> 21        0.07872797             0.00006578
|281> 22        0.03149119            -0.00001979
|282> P   22
|283> 1  16369430.4                   -0.00000345
|284> 2   2923564.62                  -0.00000945
|285> 3    665746.278                 -0.00002813
|286> 4    176341.910                 -0.00008010
|287> 5     52520.0218                -0.00023381
|288> 6     17323.6604                -0.00069992
|289> 7      6286.13361               -0.00211006
|290> 8      2487.31052               -0.00626062
|291> 9      1058.03692               -0.01687392
|292> 10      475.714421              -0.03711887
|293> 11      223.313037              -0.04938334
|294> 12      108.148839               0.01188875
|295> 13       52.3397495              0.18675090
|296> 14       26.1868051              0.15465529
|297> 15       12.9673095             -0.27360584
|298> 16        6.28738986            -0.50245089
|299> 17        2.96160374             0.22037010
|300> 18        1.27453491             0.75972612
|301> 19        0.49204983             0.26546475
|302> 20        0.19681993            -0.00809126
|303> 21        0.07872797             0.00941092
|304> 22        0.03149119            -0.00286336
|305> P   22
|306> 1  16369430.4                    0.00000087
|307> 2   2923564.62                   0.00000239
|308> 3    665746.278                  0.00000710
|309> 4    176341.910                  0.00002022
|310> 5     52520.0218                 0.00005902
|311> 6     17323.6604                 0.00017669
|312> 7      6286.13361                0.00053269
|313> 8      2487.31052                0.00158091
|314> 9      1058.03692                0.00425196
|315> 10      475.714421               0.00935675
|316> 11      223.313037               0.01245753
|317> 12      108.148839              -0.00310946
|318> 13       52.3397495             -0.04774497
|319> 14       26.1868051             -0.03929240
|320> 15       12.9673095              0.07331468
|321> 16        6.28738986             0.13793673
|322> 17        2.96160374            -0.07908707
|323> 18        1.27453491            -0.28216877
|324> 19        0.49204983            -0.03366484
|325> 20        0.19681993             0.36947048
|326> 21        0.07872797             0.49210317
|327> 22        0.03149119             0.29958727
|328> P   22
|329> 1  16369430.4                   -0.00000202
|330> 2   2923564.62                  -0.00000552
|331> 3    665746.278                 -0.00001642
|332> 4    176341.910                 -0.00004681
|333> 5     52520.0218                -0.00013636
|334> 6     17323.6604                -0.00040959
|335> 7      6286.13361               -0.00122911
|336> 8      2487.31052               -0.00367035
|337> 9      1058.03692               -0.00985404
|338> 10      475.714421              -0.02193361
|339> 11      223.313037              -0.02858150
|340> 12      108.148839               0.00629728
|341> 13       52.3397495              0.11443608
|342> 14       26.1868051              0.08721271
|343> 15       12.9673095             -0.16772038
|344> 16        6.28738986            -0.35734737
|345> 17        2.96160374             0.26225982
|346> 18        1.27453491             0.83173310
|347> 19        0.49204983            -0.79524077
|348> 20        0.19681993            -0.67817604
|349> 21        0.07872797             0.43561904
|350> 22        0.03149119             0.47372130
|351> P   22
|352> 1  16369430.4                    0.00000223
|353> 2   2923564.62                   0.00000614
|354> 3    665746.278                  0.00001813
|355> 4    176341.910                  0.00005234
|356> 5     52520.0218                 0.00014925
|357> 6     17323.6604                 0.00046322
|358> 7      6286.13361                0.00132766
|359> 8      2487.31052                0.00420598
|360> 9      1058.03692                0.01074579
|361> 10      475.714421               0.02638573
|362> 11      223.313037               0.02837722
|363> 12      108.148839               0.00287414
|364> 13       52.3397495             -0.15690687
|365> 14       26.1868051             -0.04566073
|366> 15       12.9673095              0.09766565
|367> 16        6.28738986             0.65488985
|368> 17        2.96160374            -0.85597471
|369> 18        1.27453491            -0.42240267
|370> 19        0.49204983             1.56360457
|371> 20        0.19681993            -0.89847070
|372> 21        0.07872797            -0.80700323
|373> 22        0.03149119             1.10458340
|374> D   16
|375> 1      7416.84618                0.00046047
|376> 2      3086.36369                0.00137919
|377> 3      1323.96497                0.00708348
|378> 4       582.786344               0.02951516
|379> 5       265.393450               0.10284405
|380> 6       125.737369               0.25629332
|381> 7        61.4474879              0.40216051
|382> 8        30.7434147              0.32036900
|383> 9        15.1121715              0.09378773
|384> 10        7.32946465             0.00467284
|385> 11        3.48638744             0.00107948
|386> 12        1.49957173            -0.00030960
|387> 13        0.59713115             0.00013734
|388> 14        0.20832533            -0.00006433
|389> 15        0.08333013             0.00003406
|390> 16        0.03333205            -0.00001181
|391> D   16
|392> 1      7416.84618               -0.00024143
|393> 2      3086.36369               -0.00071521
|394> 3      1323.96497               -0.00374462
|395> 4       582.786344              -0.01558459
|396> 5       265.393450              -0.05569917
|397> 6       125.737369              -0.13948572
|398> 7        61.4474879             -0.21163779
|399> 8        30.7434147             -0.05978535
|400> 9        15.1121715              0.35816515
|401> 10        7.32946465             0.52633093
|402> 11        3.48638744             0.23171998
|403> 12        1.49957173             0.02164995
|404> 13        0.59713115            -0.00006422
|405> 14        0.20832533             0.00012327
|406> 15        0.08333013            -0.00005320
|407> 16        0.03333205             0.00001709
|408> D   16
|409> 1      7416.84618                0.00007603
|410> 2      3086.36369                0.00022083
|411> 3      1323.96497                0.00118120
|412> 4       582.786344               0.00485418
|413> 5       265.393450               0.01760338
|414> 6       125.737369               0.04369140
|415> 7        61.4474879              0.06681899
|416> 8        30.7434147              0.00836647
|417> 9        15.1121715             -0.14027344
|418> 10        7.32946465            -0.20871304
|419> 11        3.48638744             0.05217488
|420> 12        1.49957173             0.45013364
|421> 13        0.59713115             0.49526816
|422> 14        0.20832533             0.20968574
|423> 15        0.08333013             0.00004547
|424> 16        0.03333205             0.00636030
|425> D   16
|426> 1      7416.84618               -0.00008911
|427> 2      3086.36369               -0.00025931
|428> 3      1323.96497               -0.00138537
|429> 4       582.786344              -0.00570200
|430> 5       265.393450              -0.02069866
|431> 6       125.737369              -0.05145411
|432> 7        61.4474879             -0.07777626
|433> 8        30.7434147             -0.00530924
|434> 9        15.1121715              0.17811005
|435> 10        7.32946465             0.23587740
|436> 11        3.48638744            -0.12866089
|437> 12        1.49957173            -0.78000549
|438> 13        0.59713115             0.26089698
|439> 14        0.20832533             0.71582643
|440> 15        0.08333013             0.03043434
|441> 16        0.03333205             0.03137999
|442> D   16
|443> 1      7416.84618                0.00011241
|444> 2      3086.36369                0.00023554
|445> 3      1323.96497                0.00174923
|446> 4       582.786344               0.00582220
|447> 5       265.393450               0.02516182
|448> 6       125.737369               0.05316070
|449> 7        61.4474879              0.09910577
|450> 8        30.7434147             -0.03189133
|451> 9        15.1121715             -0.15585481
|452> 10        7.32946465            -0.37082324
|453> 11        3.48638744             0.51798705
|454> 12        1.49957173             0.60315382
|455> 13        0.59713115            -1.28004299
|456> 14        0.20832533             0.59710513
|457> 15        0.08333013             0.41504393
|458> 16        0.03333205             0.02897749
|459> F   12
|460> 1       475.714421               0.00160386
|461> 2       223.313037               0.00604027
|462> 3       108.148839               0.02996714
|463> 4        52.3397495              0.09559970
|464> 5        26.1868051              0.22249937
|465> 6        12.9673095              0.35072110
|466> 7         6.28738986             0.35632024
|467> 8         2.96160374             0.21275673
|468> 9         1.27453491             0.05799000
|469> 10        0.50981396             0.00247319
|470> 11        0.20392558             0.00088903
|471> 12        0.08157023            -0.00027474
|472> F   12
|473> 1       475.714421              -0.00050996
|474> 2       223.313037              -0.00191679
|475> 3       108.148839              -0.00955203
|476> 4        52.3397495             -0.03031195
|477> 5        26.1868051             -0.07247321
|478> 6        12.9673095             -0.11548063
|479> 7         6.28738986            -0.10829994
|480> 8         2.96160374             0.05584748
|481> 9         1.27453491             0.52212591
|482> 10        0.50981396             0.49853638
|483> 11        0.20392558             0.08748122
|484> 12        0.08157023             0.00583711
|485> F   12
|486> 1       475.714421               0.00068957
|487> 2       223.313037               0.00131614
|488> 3       108.148839               0.01199629
|489> 4        52.3397495              0.02563577
|490> 5        26.1868051              0.09519211
|491> 6        12.9673095              0.11512823
|492> 7         6.28738986             0.20326783
|493> 8         2.96160374            -0.31743587
|494> 9         1.27453491            -0.72121736
|495> 10        0.50981396             0.65162957
|496> 11        0.20392558             0.41224993
|497> 12        0.08157023             0.00345995
|498> G   4
|499> 1         3.251577               0.11553505
|500> 2         1.300631               0.67044785
|501> 3         0.520252               0.36872003
|502> 4         0.208100               0.02947331
|503> end
|504> end
|505>
|506> *xyz 0 1
|507> Hg 0 0 0
|508> *
|509>
|510>                          ****END OF INPUT****

CARTESIAN COORDINATES (ANGSTROEM)
---------------------------------
  Hg     0.000000    0.000000    0.000000

 Total Charge           Charge          ....    0
 Multiplicity           Mult            ....    1
 Number of Electrons    NEL             ....   80
 Basis Dimension        Dim             ....   84

ORBITAL ENERGIES
----------------

  NO   OCC          E(Eh)            E(eV)
   0   2.0000   -3063.504034    -83362.1828
   1   2.0000    -549.074038    -14941.0642
   2   2.0000    -476.176839    -12957.4305
   3   2.0000    -476.176839    -12957.4305
   4   2.0000    -476.176839    -12957.4305
   5   2.0000    -132.881729     -3615.8957
   6   2.0000    -111.327858     -3029.3850
   7   2.0000    -111.327858     -3029.3850
   8   2.0000    -111.327858     -3029.3850
   9   2.0000     -87.385973     -2377.8932
  10   2.0000     -87.385973     -2377.8932
  11   2.0000     -87.385973     -2377.8932
  12   2.0000     -87.385973     -2377.8932
  13   2.0000     -87.385973     -2377.8932
  14   2.0000     -30.595621      -832.5492
  15   2.0000     -23.362095      -635.7149
  16   2.0000     -23.362095      -635.7149
  17   2.0000     -23.362095      -635.7149
  18   2.0000     -14.352626      -390.5548
  19   2.0000     -14.352626      -390.5548
  20   2.0000     -14.352626      -390.5548
  21   2.0000     -14.352626      -390.5548
  22   2.0000     -14.352626      -390.5548
  23   2.0000      -5.091547      -138.5480
  24   2.0000      -4.389201      -119.4362
  25   2.0000      -4.389201      -119.4362
  26   2.0000      -4.389201      -119.4362
  27   2.0000      -4.389201      -119.4362
  28   2.0000      -4.389201      -119.4362
  29   2.0000      -4.389201      -119.4362
  30   2.0000      -4.389201      -119.4362
  31   2.0000      -3.046731       -82.9058
  32   2.0000      -3.046731       -82.9058
  33   2.0000      -3.046731       -82.9058
  34   2.0000      -0.604299       -16.4438
  35   2.0000      -0.604299       -16.4438
  36   2.0000      -0.604299       -16.4438
  37   2.0000      -0.604299       -16.4438
  38   2.0000      -0.604299       -16.4438
  39   2.0000      -0.325649        -8.8614
  40   0.0000       0.056170         1.5285
  41   0.0000       0.056170         1.5285
  42   0.0000       0.056170         1.5285
  43   0.0000       0.276629         7.5275
  44   0.0000       0.345762         9.4087

MULLIKEN ATOMIC CHARGES
-----------------------
   0 Hg:    0.000000
Sum of atomic charges:    0.0000000

LOEWDIN ATOMIC CHARGES
----------------------
   0 Hg:   -0.000000

FINAL SINGLE POINT ENERGY    -19603.808116907850

DIPOLE MOMENT
-------------
                                X             Y             Z
Electronic contribution:     -0.00000      -0.00000      -0.00000
Nuclear contribution   :      0.00000       0.00000       0.00000
                        -----------------------------------------
Total Dipole Moment    :     -0.00000      -0.00000      -0.00000
                        -----------------------------------------
Magnitude (a.u.)       :      0.00000
Magnitude (Debye)      :      0.00000

Rotational constants in cm-1:     0.000000     0.000000     0.000000
Rotational constants in MHz :     0.000000     0.000000     0.000000

                             ****ORCA TERMINATED NORMALLY****
TOTAL RUN TIME: 0 days 0 hours 4 minutes 11 seconds 387 msec
