                         Program Version 5.0.4 -  RELEASE  -
|  1> ! RHF DKH ExtremeSCF
|  2>
|  3> %basis
|  4> newgto Zn
|  5> S   21
|  6> 1   5820021.                     0.00018105
|  7> 2    871523.4                    0.00051684
|  8> 3    198335.0                    0.00139764
|  9> 4     56176.31                   0.00352654
| 10> 5     18325.82                   0.00887479
| 11> 6      6614.955                  0.02241934
| 12> 7      2579.199                  0.05587269
| 13> 8      1068.849                  0.12907862
| 14> 9       465.1045                 0.25141493
| 15> 10      210.4130                 0.35334025
| 16> 11       97.61629                0.27031546
| 17> 12       44.38020                0.06522256
| 18> 13       21.42308               -0.00123406
| 19> 14       10.30891                0.00179703
| 20> 15        4.553645              -0.00082516
| 21> 16        2.132821               0.00035170
| 22> 17        0.929697              -0.00013382
| 23> 18        0.192147               0.00005036
| 24> 19        0.087595              -0.00004601
| 25> 20        0.037702               0.00002297
| 26> 21        0.015081              -0.00000629
| 27> S   21
| 28> 1   5820021.                    -0.00005707
| 29> 2    871523.4                   -0.00016312
| 30> 3    198335.0                   -0.00044196
| 31> 4     56176.31                  -0.00111920
| 32> 5     18325.82                  -0.00283484
| 33> 6      6614.955                 -0.00725101
| 34> 7      2579.199                 -0.01853008
| 35> 8      1068.849                 -0.04513940
| 36> 9       465.1045                -0.09830094
| 37> 10      210.4130                -0.17337966
| 38> 11       97.61629               -0.18682217
| 39> 12       44.38020                0.06522156
| 40> 13       21.42308                0.53196681
| 41> 14       10.30891                0.48349363
| 42> 15        4.553645               0.08162607
| 43> 16        2.132821              -0.00165934
| 44> 17        0.929697               0.00187238
| 45> 18        0.192147              -0.00037682
| 46> 19        0.087595               0.00035232
| 47> 20        0.037702              -0.00017286
| 48> 21        0.015081               0.00004758
| 49> S   21
| 50> 1   5820021.                     0.00002162
| 51> 2    871523.4                    0.00006181
| 52> 3    198335.0                    0.00016748
| 53> 4     56176.31                   0.00042454
| 54> 5     18325.82                   0.00107513
| 55> 6      6614.955                  0.00275855
| 56> 7      2579.199                  0.00705577
| 57> 8      1068.849                  0.01735480
| 58> 9       465.1045                 0.03818307
| 59> 10      210.4130                 0.06984881
| 60> 11       97.61629                0.07853347
| 61> 12       44.38020               -0.03044235
| 62> 13       21.42308               -0.33633301
| 63> 14       10.30891               -0.44646473
| 64> 15        4.553645               0.19185915
| 65> 16        2.132821               0.72984014
| 66> 17        0.929697               0.35636757
| 67> 18        0.192147               0.01228161
| 68> 19        0.087595              -0.00605813
| 69> 20        0.037702               0.00255798
| 70> 21        0.015081              -0.00062838
| 71> S   21
| 72> 1   5820021.                    -0.00000456
| 73> 2    871523.4                   -0.00001303
| 74> 3    198335.0                   -0.00003530
| 75> 4     56176.31                  -0.00008947
| 76> 5     18325.82                  -0.00022665
| 77> 6      6614.955                 -0.00058158
| 78> 7      2579.199                 -0.00148807
| 79> 8      1068.849                 -0.00366437
| 80> 9       465.1045                -0.00807139
| 81> 10      210.4130                -0.01484215
| 82> 11       97.61629               -0.01675427
| 83> 12       44.38020                0.00650544
| 84> 13       21.42308                0.07608196
| 85> 14       10.30891                0.10526103
| 86> 15        4.553645              -0.05499355
| 87> 16        2.132821              -0.23005197
| 88> 17        0.929697              -0.22681573
| 89> 18        0.192147               0.38866206
| 90> 19        0.087595               0.58943194
| 91> 20        0.037702               0.17635849
| 92> 21        0.015081              -0.00071149
| 93> S   21
| 94> 1   5820021.                    -0.00001604
| 95> 2    871523.4                   -0.00004599
| 96> 3    198335.0                   -0.00012370
| 97> 4     56176.31                  -0.00031859
| 98> 5     18325.82                  -0.00078367
| 99> 6      6614.955                 -0.00210765
|100> 7      2579.199                 -0.00504366
|101> 8      1068.849                 -0.01359190
|102> 9       465.1045                -0.02661475
|103> 10      210.4130                -0.05809517
|104> 11       97.61629               -0.04702918
|105> 12       44.38020               -0.01084436
|106> 13       21.42308                0.36915435
|107> 14       10.30891                0.36164109
|108> 15        4.553645              -0.39681966
|109> 16        2.132821              -1.92910913
|110> 17        0.929697               2.47865654
|111> 18        0.192147              -0.40417149
|112> 19        0.087595              -1.53058586
|113> 20        0.037702               1.58581382
|114> 21        0.015081              -0.13373282
|115> S   21
|116> 1   5820021.                     0.00000874
|117> 2    871523.4                    0.00002505
|118> 3    198335.0                    0.00006750
|119> 4     56176.31                   0.00017316
|120> 5     18325.82                   0.00042892
|121> 6      6614.955                  0.00114086
|122> 7      2579.199                  0.00277232
|123> 8      1068.849                  0.00731742
|124> 9       465.1045                 0.01470272
|125> 10      210.4130                 0.03085865
|126> 11       97.61629                0.02689148
|127> 12       44.38020                0.00155868
|128> 13       21.42308               -0.18464246
|129> 14       10.30891               -0.16573766
|130> 15        4.553645               0.06480905
|131> 16        2.132821               0.84476150
|132> 17        0.929697              -0.32931497
|133> 18        0.192147              -1.61752304
|134> 19        0.087595               0.84307862
|135> 20        0.037702               0.64300154
|136> 21        0.015081               0.05333569
|137> P   15
|138> 1     10684.58                   0.00040382
|139> 2      2530.903                  0.00207062
|140> 3       821.4820                 0.00976757
|141> 4       313.2522                 0.03732613
|142> 5       132.1094                 0.11348408
|143> 6        59.58751                0.25472285
|144> 7        28.00399                0.38243539
|145> 8        13.50425                0.30368001
|146> 9         6.401881               0.08455965
|147> 10        2.985769               0.00395059
|148> 11        1.336902               0.00155774
|149> 12        0.549961              -0.00022599
|150> 13        0.219984               0.00019304
|151> 14        0.087994              -0.00008536
|152> 15        0.035198               0.00002695
|153> P   15
|154> 1     10684.58                  -0.00015166
|155> 2      2530.903                 -0.00077865
|156> 3       821.4820                -0.00370451
|157> 4       313.2522                -0.01432396
|158> 5       132.1094                -0.04500382
|159> 6        59.58751               -0.10520519
|160> 7        28.00399               -0.16887692
|161> 8        13.50425               -0.10878381
|162> 9         6.401881               0.20185678
|163> 10        2.985769               0.48409512
|164> 11        1.336902               0.39256489
|165> 12        0.549961               0.09105963
|166> 13        0.219984              -0.00189512
|167> 14        0.087994               0.00230488
|168> 15        0.035198              -0.00066614
|169> P   15
|170> 1     10684.58                   0.00002539
|171> 2      2530.903                  0.00013049
|172> 3       821.4820                 0.00062045
|173> 4       313.2522                 0.00240540
|174> 5       132.1094                 0.00756782
|175> 6        59.58751                0.01779361
|176> 7        28.00399                0.02870636
|177> 8        13.50425                0.01815438
|178> 9         6.401881              -0.04135820
|179> 10        2.985769              -0.09763276
|180> 11        1.336902              -0.09091632
|181> 12        0.549961               0.02048170
|182> 13        0.219984               0.32005841
|183> 14        0.087994               0.51516429
|184> 15        0.035198               0.28608064
|185> P   15
|186> 1     10684.58                  -0.00007233
|187> 2      2530.903                 -0.00037179
|188> 3       821.4820                -0.00176793
|189> 4       313.2522                -0.00685407
|190> 5       132.1094                -0.02154740
|191> 6        59.58751               -0.05097063
|192> 7        28.00399               -0.08347207
|193> 8        13.50425               -0.05986025
|194> 9         6.401881               0.14903972
|195> 10        2.985769               0.36923182
|196> 11        1.336902               0.07238574
|197> 12        0.549961              -0.58254544
|198> 13        0.219984              -0.59494992
|199> 14        0.087994               0.30761298
|200> 15        0.035198               0.54802875
|201> P   15
|202> 1     10684.58                   0.00011286
|203> 2      2530.903                  0.00058179
|204> 3       821.4820                 0.00275699
|205> 4       313.2522                 0.01074436
|206> 5       132.1094                 0.03379148
|207> 6        59.58751                0.07883404
|208> 7        28.00399                0.13025503
|209> 8        13.50425                0.11613826
|210> 9         6.401881              -0.35004710
|211> 10        2.985769              -0.69528698
|212> 11        1.336902               0.67003207
|213> 12        0.549961               0.93839158
|214> 13        0.219984              -1.12439332
|215> 14        0.087994              -0.20979326
|216> 15        0.035198               0.73408987
|217> D   10
|218> 1       305.0115                 0.00109794
|219> 2        91.40003                0.00897317
|220> 3        34.95829                0.04059153
|221> 4        14.83697                0.12220192
|222> 5         6.680748               0.24583476
|223> 6         3.029026               0.33196343
|224> 7         1.334839               0.32365695
|225> 8         0.558608               0.22200916
|226> 9         0.211743               0.07140538
|227> 10        0.084697               0.00160051
|228> D   10
|229> 1       305.0115                -0.00147018
|230> 2        91.40003               -0.01213601
|231> 3        34.95829               -0.05534681
|232> 4        14.83697               -0.17423242
|233> 5         6.680748              -0.33937985
|234> 6         3.029026              -0.26950346
|235> 7         1.334839               0.18804296
|236> 8         0.558608               0.53484336
|237> 9         0.211743               0.26644908
|238> 10        0.084697               0.01741311
|239> D   10
|240> 1       305.0115                 0.00160645
|241> 2        91.40003                0.01370374
|242> 3        34.95829                0.06131654
|243> 4        14.83697                0.21292790
|244> 5         6.680748               0.38703206
|245> 6         3.029026              -0.13259909
|246> 7         1.334839              -0.69334120
|247> 8         0.558608               0.11255237
|248> 9         0.211743               0.54155001
|249> 10        0.084697               0.26415732
|250> F   6
|251> 1        16.5744                 0.04717270
|252> 2         6.5695                 0.21796642
|253> 3         2.6039                 0.47317671
|254> 4         1.0321                 0.41130534
|255> 5          .4091                 0.14536769
|256> 6          .1621                 0.01262379
|257> F   6
|258> 1        16.5744                -0.10674487
|259> 2         6.5695                -0.47236645
|260> 3         2.6039                -0.35102883
|261> 4         1.0321                 0.49372917
|262> 5          .4091                 0.42550996
|263> 6          .1621                 0.05778085
|264> G   4
|265> 1         9.3740                 0.08546675
|266> 2         3.6844                 0.45417197
|267> 3         1.4482                 0.52480819
|268> 4          .5692                 0.20842173
|269> end
|270> end
|271>
|272> *xyz 0 1
|273> Zn 0 0 0
|274> *
|275>
|276>                          ****END OF INPUT****

CARTESIAN COORDINATES (ANGSTROEM)
---------------------------------
  Zn     0.000000    0.000000    0.000000

 Total Charge           Charge          ....    0
 Multiplicity           Mult            ....    1
 Number of Electrons    NEL             ....   30
 Basis Dimension        Dim             ....   59

ORBITAL ENERGIES
----------------

  NO   OCC          E(Eh)            E(eV)
   0   2.0000    -357.525403     -9728.7608
   1   2.0000     -45.323597     -1233.3178
   2   2.0000     -39.133168     -1064.8676
   3   2.0000     -39.133168     -1064.8676
   4   2.0000     -39.133168     -1064.8676
   5   2.0000      -5.795608      -157.7065
   6   2.0000      -3.874439      -105.4288
   7   2.0000      -3.874439      -105.4288
   8   2.0000      -3.874439      -105.4288
   9   2.0000      -0.759902       -20.6780
  10   2.0000      -0.759902       -20.6780
  11   2.0000      -0.759902       -20.6780
  12   2.0000      -0.759902       -20.6780
  13   2.0000      -0.759902       -20.6780
  14   2.0000      -0.297682        -8.1003
  15   0.0000       0.063748         1.7347
  16   0.0000       0.063748         1.7347
  17   0.0000       0.063748         1.7347
  18   0.0000       0.255029         6.9397
  19   0.0000       0.418056        11.3759

MULLIKEN ATOMIC CHARGES
-----------------------
   0 Zn:   -0.000000
Sum of atomic charges:   -0.0000000

LOEWDIN ATOMIC CHARGES
----------------------
   0 Zn:   -0.000000

FINAL SINGLE POINT ENERGY     -1794.230957813639

DIPOLE MOMENT
-------------
                                X             Y             Z
Electronic contribution:      0.00000      -0.00000       0.00000
Nuclear contribution   :      0.00000       0.00000       0.00000
                        -----------------------------------------
Total Dipole Moment    :      0.00000      -0.00000       0.00000
                        -----------------------------------------
Magnitude (a.u.)       :      0.00000
Magnitude (Debye)      :      0.00000

Rotational constants in cm-1:     0.000000     0.000000     0.000000
Rotational constants in MHz :     0.000000     0.000000     0.000000

                             ****ORCA TERMINATED NORMALLY****
TOTAL RUN TIME: 0 days 0 hours 0 minutes 15 seconds 181 msec
